
732 atoms
6 atom types
   0.0000000000   20.0000000000 xlo xhi
   0.0000000000   20.0000000000 ylo yhi
   0.0000000000   20.0000000000 zlo zhi
   0.0000000000    0.0000000000   0.0000000000 xy xz yz

Atoms # atomic

 1 1 10.598 11.7685 10.4969
 2 1 11.5525 9.07844 10.9202
 3 2 8.49972 11.0643 9.36142
 4 2 13.6406 10.0232 11.5995
 5 3 9.51918 8.58613 10.185
 6 3 12.4464 12.3642 11.1526
 7 4 8.51106 9.39506 9.87987
 8 4 13.4937 11.6844 11.2567
 9 5 9.03344 7.73407 10.4596
 10 5 7.44339 9.02079 9.95341
 11 5 14.5025 12.1331 11.286
 12 5 12.6321 13.3842 11.0563
 13 4 16.8102 1.61443 1.95091
 14 5 17.3048 2.61701 2.08771
 15 5 15.8607 1.58481 2.53987
 16 5 16.4743 1.77327 0.891608
 17 6 17.748 0.562779 2.03688
 18 5 18.4798 1.03915 2.57685
 19 4 7.05336 6.71525 1.89762
 20 5 7.54298 6.10369 2.69764
 21 5 5.96381 6.72497 2.31917
 22 5 7.37034 7.74579 1.80485
 23 6 7.0532 5.97453 0.61942
 24 5 7.32152 6.53762 19.8365
 25 4 19.1618 10.8894 1.15081
 26 5 19.387 11.8803 1.70272
 27 5 0.0812028 10.6899 0.493907
 28 5 18.9918 10.0801 1.96112
 29 6 17.9539 10.9859 0.375544
 30 5 17.2469 10.562 0.905832
 31 4 1.4486 7.53063 16.1269
 32 5 2.38225 8.19715 15.9012
 33 5 1.44777 6.6956 15.3786
 34 5 1.52377 7.06817 17.1274
 35 6 0.233333 8.2963 16.0186
 36 5 0.516877 9.21149 16.0158
 37 4 11.7011 11.3238 15.2669
 38 5 11.2367 10.3633 15.4021
 39 5 12.3455 11.3002 14.4086
 40 5 10.8975 12.1495 15.0753
 41 6 12.4149 11.7022 16.4567
 42 5 11.9337 11.6392 17.3411
 43 4 15.552 11.7032 17.8642
 44 5 16.4588 10.9647 17.6946
 45 5 14.9392 11.0806 18.5037
 46 5 15.8414 12.5917 18.4598
 47 6 15.0134 11.9706 16.5619
 48 5 14.0567 11.6952 16.5367
 49 4 1.08401 0.101533 9.0658
 50 5 0.70707 0.549736 8.18881
 51 5 0.349445 0.166946 9.89744
 52 5 1.43505 19.0963 8.85083
 53 6 2.21612 0.851836 9.5248
 54 5 2.95062 0.596204 8.89604
 55 4 9.12035 9.34853 4.88382
 56 5 9.67338 8.45351 5.20249
 57 5 8.37268 8.96441 4.20302
 58 5 8.58281 9.76943 5.78585
 59 6 9.99591 10.3141 4.32406
 60 5 10.8661 10.4707 4.86039
 61 4 0.472025 1.84902 0.147829
 62 5 19.6748 1.41196 19.5354
 63 5 0.860194 1.06846 0.794154
 64 5 1.24086 2.22563 19.4132
 65 6 0.0798611 3.04561 0.845678
 66 5 19.7365 2.84494 1.73076
 67 4 1.4267 5.54684 6.61476
 68 5 1.69047 5.57283 5.50105
 69 5 0.341314 5.32206 6.61395
 70 5 1.87586 4.67277 6.99442
 71 6 1.65324 6.72802 7.31553
 72 5 2.60088 6.85184 7.58277
 73 4 8.3658 18.9134 9.68258
 74 5 7.65279 18.6331 8.90965
 75 5 7.96154 19.7971 10.217
 76 5 8.66817 18.1886 10.394
 77 6 9.60894 19.4825 9.08894
 78 5 9.8705 19.0118 8.19953
 79 4 7.38759 10.8048 14.5283
 80 5 6.59723 11.0731 13.7756
 81 5 8.25488 10.3839 14.0384
 82 5 7.66084 11.5784 15.1969
 83 6 6.74085 9.71742 15.2812
 84 5 7.05896 9.648 16.2286
 85 4 16.4812 0.997758 15.955
 86 5 15.5073 0.768755 15.4143
 87 5 17.0983 0.151578 15.6574
 88 5 16.8109 2.01223 15.5101
 89 6 16.3766 1.01868 17.3335
 90 5 15.5666 1.60345 17.4347
 91 4 6.09117 6.63576 17.1432
 92 5 6.28863 6.86298 16.1025
 93 5 5.09968 6.90303 17.4912
 94 5 6.24912 5.53724 17.1723
 95 6 7.15943 7.20205 18.0645
 96 5 7.90679 6.6258 17.8721
 97 4 8.47634 0.126275 4.21512
 98 5 8.44937 1.18585 3.89862
 99 5 7.90769 19.9974 5.14025
 100 5 8.09824 19.499 3.37226
 101 6 9.85465 19.9049 4.42408
 102 5 9.92035 19.3988 5.26447
 103 4 17.4254 6.68689 9.33168
 104 5 16.7735 6.92867 8.49328
 105 5 16.9776 7.18266 10.2132
 106 5 17.37 5.53406 9.545
 107 6 18.7467 7.13073 9.00479
 108 5 18.8004 7.15706 7.96981
 109 4 0.135937 14.688 13.1642
 110 5 0.75146 14.0486 13.772
 111 5 19.3475 15.2411 13.7568
 112 5 0.819456 15.4379 12.6809
 113 6 19.4744 13.8554 12.2105
 114 5 0.196737 13.689 11.4372
 115 4 9.00612 13.1377 2.89043
 116 5 9.81396 12.5179 2.4759
 117 5 9.46902 14.1107 3.18147
 118 5 8.24626 13.2392 2.16067
 119 6 8.4472 12.4715 4.0588
 120 5 9.05222 11.6662 4.20737
 121 4 2.95648 11.2022 13.0106
 122 5 2.05771 10.6422 12.7363
 123 5 3.70791 11.3545 12.2048
 124 5 2.75288 12.3137 13.1627
 125 6 3.57128 10.5955 14.2187
 126 5 3.90811 9.67383 14.0387
 127 4 6.29254 2.59836 9.59853
 128 5 5.23079 2.9414 9.62913
 129 5 6.92915 3.41438 9.25519
 130 5 6.65325 2.37479 10.5883
 131 6 6.32815 1.41023 8.78934
 132 5 7.22593 1.30441 8.42961
 133 4 3.5105 8.22381 3.44702
 134 5 3.39176 9.25146 3.13732
 135 5 2.6777 7.64182 3.02027
 136 5 4.48876 7.92918 3.06025
 137 6 3.46035 7.95624 4.93817
 138 5 2.68558 8.49676 5.22778
 139 4 1.48957 5.95124 19.4477
 140 5 0.812102 6.61559 19.0165
 141 5 0.849348 5.27085 0.140897
 142 5 1.77972 5.31273 18.559
 143 6 2.62262 6.59671 0.12317
 144 5 3.49592 6.13601 19.8742
 145 4 8.43382 6.16589 7.05811
 146 5 7.97697 5.50845 7.76724
 147 5 8.98713 7.05018 7.48985
 148 5 9.20203 5.43704 6.59852
 149 6 7.65255 6.57659 5.92399
 150 5 6.70309 6.25991 5.99942
 151 4 18.9569 14.3409 19.847
 152 5 18.1913 13.4821 19.8292
 153 5 18.8851 14.742 0.883291
 154 5 19.9443 13.9339 19.7372
 155 6 18.6773 15.3788 18.8758
 156 5 19.2624 16.1895 18.9382
 157 4 11.2739 6.65782 1.24223
 158 5 12.2218 6.64604 1.77229
 159 5 10.8569 5.65689 1.19265
 160 5 10.6373 7.30735 1.89118
 161 6 11.2858 7.29073 19.9654
 162 5 10.764 8.11619 19.9952
 163 4 12.042 19.0548 1.69071
 164 5 11.6302 18.993 0.642349
 165 5 12.85 18.2419 1.64516
 166 5 12.3706 0.0360938 1.91474
 167 6 11.0481 18.4625 2.58206
 168 5 10.8817 18.9766 3.47
 169 4 10.0791 13.7542 6.60522
 170 5 9.53282 12.9436 7.05773
 171 5 10.4745 13.5209 5.60601
 172 5 9.37246 14.6067 6.52097
 173 6 11.2901 13.9212 7.47399
 174 5 11.2431 14.4183 8.27809
 175 4 18.6671 5.30042 13.48
 176 5 18.2338 5.9293 12.7052
 177 5 19.0331 4.35326 13.1472
 178 5 19.404 5.89125 14.0189
 179 6 17.5507 4.88673 14.3591
 180 5 17.2844 5.67766 14.8693
 181 4 11.674 12.5348 0.00883252
 182 5 10.997 13.3662 19.8442
 183 5 12.7926 12.9014 0.0403741
 184 5 11.3688 12.1599 0.971772
 185 6 11.5299 11.6237 18.9379
 186 5 10.7541 11.0607 19.113
 187 4 16.9725 11.3942 13.4465
 188 5 16.3296 10.7044 12.9483
 189 5 16.534 11.7664 14.3416
 190 5 18.0294 11.0302 13.4562
 191 6 16.9874 12.5934 12.4466
 192 5 17.99 12.8793 12.3422
 193 4 3.73573 9.68495 19.9179
 194 5 3.86947 10.7211 0.295976
 195 5 3.86961 9.68598 18.8197
 196 5 4.5309 9.09815 0.464743
 197 6 2.40186 9.20534 0.312118
 198 5 2.54922 8.18055 0.29608
 199 4 19.4704 9.94828 10.7068
 200 5 19.1352 10.7046 11.4693
 201 5 19.9016 9.13045 11.3049
 202 5 18.5761 9.55285 10.1567
 203 6 0.393488 10.4691 9.7915
 204 5 1.21057 9.85401 9.61554
 205 4 1.53472 10.7298 5.49171
 206 5 2.20911 11.309 6.11343
 207 5 0.510634 11.162 5.48882
 208 5 2.10604 10.6895 4.5073
 209 6 1.39472 9.43165 6.08575
 210 5 1.8533 9.51618 6.96139
 211 4 16.6461 14.6205 15.9515
 212 5 16.1489 14.0186 16.6916
 213 5 16.9237 13.9674 15.1783
 214 5 15.9575 15.3576 15.6724
 215 6 17.7673 15.39 16.439
 216 5 18.1025 15.071 17.2738
 217 4 18.4791 3.44241 17.4814
 218 5 19.0392 2.5887 17.7694
 219 5 17.4426 3.34391 17.1113
 220 5 18.3892 4.1472 18.3369
 221 6 19.1539 4.16168 16.3822
 222 5 18.4818 4.31571 15.7139
 223 4 17.8744 8.70928 5.97399
 224 5 16.8835 8.30459 5.9587
 225 5 18.0272 9.08017 4.97008
 226 5 17.9871 9.50664 6.75371
 227 6 18.8086 7.61129 6.39462
 228 5 19.7851 7.85257 6.29345
 229 4 10.9993 7.63616 14.0464
 230 5 10.1649 8.32044 13.9745
 231 5 11.9009 8.23196 14.3091
 232 5 10.7012 6.88065 14.8036
 233 6 11.1825 7.06672 12.7176
 234 5 11.9928 6.46026 12.7245
 235 4 9.54237 2.43939 7.18
 236 5 9.03371 3.00602 6.35463
 237 5 10.5403 2.0502 6.91165
 238 5 9.79206 3.15942 8.05601
 239 6 8.66287 1.39084 7.60058
 240 5 9.27013 0.77176 8.11142
 241 4 19.7971 3.98302 10.0375
 242 5 18.7519 3.91225 9.66471
 243 5 0.14228 3.23713 10.7662
 244 5 0.466145 3.84971 9.11616
 245 6 0.151289 5.32483 10.506
 246 5 19.6655 6.02651 9.99504
 247 4 18.2029 17.5256 11.9459
 248 5 19.1949 17.2519 12.3737
 249 5 18.2853 17.5206 10.8364
 250 5 17.5114 16.7583 12.2176
 251 6 17.7785 18.7627 12.5335
 252 5 18.5534 19.2483 12.8385
 253 4 3.48675 14.1225 19.2234
 254 5 3.95742 15.0862 18.9986
 255 5 3.17263 14.0317 0.215571
 256 5 2.49424 14.134 18.6878
 257 6 4.30592 12.9405 18.9102
 258 5 4.44564 12.915 17.944
 259 4 6.36329 13.5864 10.3404
 260 5 6.15038 14.6185 10.5295
 261 5 7.27422 13.4331 9.67051
 262 5 6.47455 13.1362 11.3332
 263 6 5.11228 13.0603 9.71489
 264 5 5.25141 13.0993 8.74486
 265 4 14.9522 17.8192 16.126
 266 5 15.5081 17.7702 15.161
 267 5 15.0115 16.8865 16.6566
 268 5 15.5988 18.4646 16.6692
 269 6 13.5587 18.1944 15.9425
 270 5 13.078 17.9466 16.8095
 271 4 2.03226 13.553 2.56235
 272 5 1.95683 12.7318 1.82427
 273 5 2.79947 13.2614 3.35822
 274 5 2.27421 14.4824 2.16649
 275 6 0.730192 13.7031 3.17964
 276 5 0.45743 14.6308 3.04221
 277 4 5.24459 15.182 3.82462
 278 5 5.35345 16.2808 3.95849
 279 5 4.94584 15.1934 2.78704
 280 5 6.19181 14.5891 3.99808
 281 6 4.36205 14.6262 4.7321
 282 5 3.57628 15.237 4.76485
 283 4 16.5423 19.8408 9.14501
 284 5 17.0932 0.0627146 8.16843
 285 5 17.2424 19.3216 9.79893
 286 5 16.4336 0.828887 9.67671
 287 6 15.2687 19.1219 9.00863
 288 5 14.8074 19.2225 9.88289
 289 4 3.98727 0.821969 6.59475
 290 5 4.96622 0.983092 6.11357
 291 5 3.47209 1.76744 6.89447
 292 5 3.25487 0.238083 5.90941
 293 6 4.2423 19.9775 7.7895
 294 5 5.05251 0.379335 8.21669
 295 4 14.9112 4.23468 8.23298
 296 5 14.5341 5.18388 8.62658
 297 5 14.1019 3.5181 8.15429
 298 5 15.4611 4.47051 7.27836
 299 6 15.8305 3.61122 9.11706
 300 5 15.3701 3.37447 9.92163
 301 4 3.58085 1.85355 12.479
 302 5 4.50528 1.33766 12.6776
 303 5 3.20602 2.33671 13.347
 304 5 3.78607 2.46517 11.6229
 305 6 2.52563 0.84538 12.1191
 306 5 2.52006 0.90757 11.1691
 307 4 1.71862 16.4805 16.1243
 308 5 2.53138 15.8553 15.8405
 309 5 1.67022 17.222 15.3495
 310 5 0.738624 15.972 16.2707
 311 6 2.16904 17.0312 17.3955
 312 5 1.3601 17.3509 17.8379
 313 4 5.26366 6.67365 8.99267
 314 5 5.72435 6.36308 9.93332
 315 5 5.75911 7.45271 8.50567
 316 5 5.21038 5.74195 8.31025
 317 6 3.90307 7.07588 9.28555
 318 5 3.43786 6.41977 9.89615
 319 4 4.81642 13.448 15.2435
 320 5 5.64038 14.1224 15.4281
 321 5 3.97153 14.0952 15.3295
 322 5 4.84387 13.1054 14.2268
 323 6 4.8665 12.3768 16.1955
 324 5 4.52885 11.5549 15.7218
 325 4 5.99192 11.9445 6.12151
 326 5 6.97514 12.2077 6.50034
 327 5 6.08442 12.1147 5.05275
 328 5 5.58107 10.931 6.36144
 329 6 4.99172 12.8256 6.75179
 330 5 4.78986 13.575 6.10524
 331 4 19.2044 18.2862 17.5571
 332 5 19.8563 18.0952 16.6818
 333 5 19.1287 19.4229 17.6586
 334 5 18.211 17.9406 17.329
 335 6 19.7047 17.7061 18.7274
 336 5 19.0784 18.0632 19.4124
 337 4 12.7409 16.1182 9.82446
 338 5 13.5361 15.652 9.18403
 339 5 13.1349 16.336 10.855
 340 5 12.2675 16.9977 9.39452
 341 6 11.7058 15.1135 9.83245
 342 5 10.9735 15.4498 10.3917
 343 4 14.498 0.344232 5.91666
 344 5 14.0504 0.964429 5.15853
 345 5 14.5006 19.3451 5.51251
 346 5 15.5707 0.603207 6.15065
 347 6 13.5904 0.386442 7.11964
 348 5 14.001 19.8434 7.83323
 349 4 11.9008 1.39855 10.0218
 350 5 12.1603 1.44678 8.88611
 351 5 12.7832 1.89195 10.5306
 352 5 10.9311 1.87335 10.2897
 353 6 11.8659 0.0268278 10.4172
 354 5 11.0758 19.6009 10.1348
 355 4 15.8622 14.729 10.3963
 356 5 16.9624 14.6237 10.5209
 357 5 15.7192 15.7997 10.2271
 358 5 15.4461 14.1278 9.54212
 359 6 15.2122 14.269 11.6244
 360 5 15.8536 13.7077 12.1609
 361 4 18.1096 2.38814 6.80638
 362 5 18.4551 2.22119 7.83155
 363 5 18.3367 1.49255 6.24844
 364 5 17.0603 2.62905 6.95632
 365 6 18.7982 3.43406 6.11135
 366 5 18.0579 3.98603 5.73552
 367 4 17.8798 12.6718 8.51494
 368 5 17.0332 12.8363 7.88039
 369 5 18.2474 13.6592 8.87344
 370 5 17.4444 12.1179 9.37554
 371 6 18.8639 12.0241 7.73424
 372 5 19.4734 11.5216 8.33816
 373 4 18.0802 16.3225 2.48664
 374 5 17.8117 17.2361 3.14054
 375 5 17.717 15.3533 2.86901
 376 5 17.9566 16.5062 1.36503
 377 6 19.5419 16.2277 2.63112
 378 5 19.9825 17.0954 2.39303
 379 4 14.1758 8.27529 18.265
 380 5 14.9596 8.99703 18.0429
 381 5 13.2999 8.66234 17.8339
 382 5 14.5114 7.37428 17.7597
 383 6 14.1 8.07912 19.7256
 384 5 13.1522 7.89463 19.9132
 385 4 13.0135 14.8868 14.5794
 386 5 12.9295 14.1882 13.6902
 387 5 12.4781 14.3357 15.4164
 388 5 14.0636 14.9841 14.9018
 389 6 12.3265 16.0969 14.2117
 390 5 12.3913 16.814 14.8567
 391 4 4.24942 15.3943 12.385
 392 5 3.83986 14.4931 11.958
 393 5 5.09813 15.2169 12.9952
 394 5 4.51358 16.127 11.6274
 395 6 3.17017 15.8964 13.2382
 396 5 3.33261 16.8366 13.3956
 397 4 12.0549 5.69301 9.13252
 398 5 12.4223 5.44671 8.10926
 399 5 12.601 6.62725 9.41206
 400 5 11.0104 5.93946 9.2806
 401 6 12.5686 4.65039 9.9209
 402 5 12.7854 4.91619 10.8538
 403 4 16.3195 5.54757 1.04191
 404 5 16.5455 4.50518 0.751358
 405 5 16.4812 5.58978 2.15641
 406 5 17.0102 6.10241 0.43774
 407 6 14.9905 5.80722 0.604672
 408 5 14.8247 6.6838 0.159177
 409 4 14.7922 6.15587 12.0737
 410 5 14.7963 7.1238 11.5409
 411 5 15.3024 5.43151 11.4209
 412 5 15.3344 6.29399 13.0582
 413 6 13.4339 5.63427 12.3539
 414 5 13.5052 5.00142 13.1115
 415 4 0.278884 6.76008 2.83733
 416 5 0.333527 5.83966 2.32716
 417 5 0.996766 6.70386 3.64201
 418 5 0.360458 7.63021 2.14716
 419 6 18.9465 6.75105 3.33679
 420 5 18.8596 6.85416 4.33751
 421 4 19.7334 1.02743 14.3043
 422 5 0.515307 1.74773 14.5791
 423 5 19.4557 0.538196 15.2509
 424 5 18.8333 1.51288 13.9822
 425 6 0.272655 0.059554 13.4131
 426 5 0.896941 0.563342 12.836
 427 4 13.9588 16.4011 4.06819
 428 5 14.8102 16.8682 3.48406
 429 5 14.1134 16.6352 5.12616
 430 5 13.0585 16.9857 3.78837
 431 6 13.7418 14.9673 3.8971
 432 5 13.606 14.4859 4.75966
 433 4 15.6509 9.59659 8.51387
 434 5 15.6545 10.3089 7.63481
 435 5 16.6833 9.33323 8.63731
 436 5 15.3399 10.1109 9.42793
 437 6 14.888 8.40489 8.22086
 438 5 14.616 8.47451 7.28142
 439 4 3.67074 10.4262 8.94394
 440 5 3.52882 11.2618 8.2712
 441 5 4.57979 10.0033 8.54227
 442 5 3.83581 10.7869 9.94876
 443 6 2.58289 9.4378 8.70087
 444 5 2.96403 8.54787 8.95925
 445 4 16.1509 2.3476 12.5922
 446 5 16.8188 1.49728 12.9755
 447 5 15.4308 2.67747 13.3955
 448 5 16.8364 3.11272 12.2877
 449 6 15.3685 1.91893 11.4617
 450 5 15.2057 1.01296 11.6328
 451 4 5.62736 12.3936 2.1018
 452 5 4.73204 12.6795 2.64392
 453 5 6.38949 12.2038 2.82463
 454 5 5.2692 11.4857 1.60581
 455 6 6.05298 13.3709 1.14099
 456 5 5.47505 13.1873 0.404615
 457 4 4.53638 3.80759 0.383454
 458 5 4.77426 3.87814 1.4566
 459 5 5.15393 2.8865 0.0918773
 460 5 3.48202 3.65537 0.326223
 461 6 4.7553 4.97302 19.6251
 462 5 5.5954 5.45161 19.9992
 463 4 12.7894 2.38868 14.3904
 464 5 11.6902 2.29265 14.4386
 465 5 13.1755 2.12674 15.4175
 466 5 13.2305 1.82569 13.5114
 467 6 12.9373 3.9023 14.3055
 468 5 13.5397 4.21005 15.0573
 469 4 7.19692 0.210192 12.9405
 470 5 6.92095 0.0892843 11.9203
 471 5 6.30918 0.168867 13.5999
 472 5 7.84315 19.4597 13.2434
 473 6 7.82587 1.41766 13.2124
 474 5 8.76723 1.2178 13.158
 475 4 3.76174 19.1099 14.6957
 476 5 4.41008 19.9959 14.9389
 477 5 4.10935 18.2786 15.3325
 478 5 2.72747 19.4876 15.0548
 479 6 3.85624 18.6249 13.2939
 480 5 3.41056 19.2892 12.7573
 481 4 9.206 10.0811 1.0149
 482 5 8.69729 9.31613 1.72533
 483 5 8.54465 10.9665 0.983813
 484 5 10.1102 10.346 1.49747
 485 6 9.68876 9.57107 19.7506
 486 5 8.85912 9.48855 19.1547
 487 4 14.5845 13.1776 6.72576
 488 5 15.2392 14.0518 6.87579
 489 5 15.1217 12.4623 6.17893
 490 5 14.4108 12.7921 7.73107
 491 6 13.3116 13.4609 6.09954
 492 5 12.5717 13.7763 6.78282
 493 4 0.0647454 18.5956 5.59124
 494 5 19.7057 19.5998 5.82138
 495 5 0.000839943 18.2395 6.63528
 496 5 19.3442 18.194 4.7992
 497 6 1.3805 18.6532 5.07416
 498 5 1.78577 17.749 5.34008
 499 4 16.7497 16.6024 7.29307
 500 5 16.7963 16.0447 6.35745
 501 5 17.192 15.8907 7.95402
 502 5 17.462 17.4621 7.20193
 503 6 15.4276 16.9321 7.56557
 504 5 15.3757 17.6501 8.24017
 505 4 17.4802 12.6817 4.26867
 506 5 18.4032 13.2675 4.40341
 507 5 16.5518 13.2962 4.27638
 508 5 17.5204 12.3533 3.18532
 509 6 17.187 11.7909 5.3304
 510 5 17.9655 11.725 5.93589
 511 4 11.6007 17.5275 6.51117
 512 5 11.1651 16.7012 7.09622
 513 5 12.6866 17.5618 6.77395
 514 5 11.5077 17.4122 5.43922
 515 6 10.9067 18.8115 6.70594
 516 5 11.6469 19.4699 6.61646
 517 4 8.99897 16.5521 1.63137
 518 5 9.48064 16.3124 2.57518
 519 5 9.71265 16.3624 0.77865
 520 5 8.10125 15.9775 1.52786
 521 6 8.74785 17.9787 1.61703
 522 5 9.6143 18.4794 1.87666
 523 4 8.98526 3.81786 3.33712
 524 5 8.83227 4.24998 2.30824
 525 5 8.10317 3.25656 3.617
 526 5 9.79585 3.05847 3.17836
 527 6 9.42819 4.93128 4.16
 528 5 8.66896 5.53881 4.37445
 529 4 2.74862 5.75953 12.4681
 530 5 3.83205 5.66811 12.7897
 531 5 2.10427 5.30668 13.1785
 532 5 2.61945 6.85237 12.3842
 533 6 2.73355 5.1699 11.1442
 534 5 1.8358 5.31469 10.7792
 535 4 12.6309 16.244 19.0026
 536 5 11.9791 15.8887 19.7625
 537 5 13.5312 16.5274 19.551
 538 5 12.8827 15.4242 18.3743
 539 6 12.2262 17.3306 18.1417
 540 5 11.2221 17.2492 17.9844
 541 4 4.99709 4.89684 4.75345
 542 5 4.97291 5.10699 3.67248
 543 5 4.20312 4.0953 5.02474
 544 5 5.97287 4.47423 4.94961
 545 6 5.03385 6.0995 5.55755
 546 5 4.29891 6.80895 5.27457
 547 4 9.39227 15.9985 16.6721
 548 5 9.33035 15.1584 17.4868
 549 5 10.2131 15.6604 15.9736
 550 5 8.42068 15.9577 16.1788
 551 6 9.81318 17.3119 17.1427
 552 5 9.01019 17.7655 17.4947
 553 4 9.0048 4.27501 11.2736
 554 5 9.55788 3.95273 10.3343
 555 5 7.94694 3.97276 11.2841
 556 5 9.43684 3.69215 12.1501
 557 6 9.08166 5.74489 11.4008
 558 5 9.89265 5.97784 11.8856
 559 4 15.8274 5.74769 4.76037
 560 5 16.0854 6.0353 5.77987
 561 5 14.9323 5.1577 4.71902
 562 5 15.5705 6.67765 4.3119
 563 6 16.7252 4.94344 4.02596
 564 5 17.4805 5.45518 3.67143
 565 4 8.09032 0.790807 19.4812
 566 5 9.00786 0.421477 18.9876
 567 5 8.35544 1.349 0.475411
 568 5 7.38933 1.41605 18.9305
 569 6 7.30265 19.5843 19.8365
 570 5 7.92569 19.0452 0.369102
 571 4 11.9665 10.4422 7.19834
 572 5 12.6642 9.67725 7.46398
 573 5 10.9344 10.0367 7.29352
 574 5 12.0112 11.2661 7.96248
 575 6 12.1516 10.8303 5.78331
 576 5 12.5303 11.7804 5.71224
 577 4 9.12202 14.6445 12.1876
 578 5 8.82951 14.5334 13.252
 579 5 9.51466 13.6814 11.7592
 580 5 8.17857 14.9182 11.6982
 581 6 9.96871 15.8434 12.107
 582 5 10.725 15.7058 12.7938
 583 4 14.354 18.6294 12.723
 584 5 13.7169 17.6759 12.625
 585 5 14.0547 19.2814 13.56
 586 5 15.3724 18.3404 12.6738
 587 6 14.1148 19.3015 11.429
 588 5 13.1397 19.6291 11.3554
 589 4 12.2208 2.89081 4.64378
 590 5 12.9379 3.49541 4.05004
 591 5 12.688 2.57757 5.58258
 592 5 11.2921 3.50259 4.74054
 593 6 11.8757 1.67774 3.89421
 594 5 11.016 1.38561 4.30173
 595 4 13.0185 7.29108 5.41246
 596 5 12.0439 7.44716 6.01104
 597 5 13.5305 6.41023 5.82151
 598 5 12.7374 6.94901 4.39985
 599 6 13.8835 8.42264 5.38091
 600 5 13.2249 9.15719 5.48319
 601 4 4.1602 16.6892 8.89888
 602 5 3.20128 16.2436 9.27894
 603 5 4.39111 17.4049 9.65912
 604 5 4.8896 15.8935 8.86355
 605 6 3.95802 17.2897 7.60757
 606 5 3.96549 18.2783 7.61178
 607 4 13.0291 3.2039 1.06483
 608 5 13.687 2.30012 1.09558
 609 5 11.9248 2.91685 1.08662
 610 5 13.1906 3.81333 2.0063
 611 6 13.1757 4.06497 19.8912
 612 5 13.9334 4.68542 0.161216
 613 4 6.04143 2.65413 16.0349
 614 5 7.01737 2.49209 15.4675
 615 5 5.91618 3.76928 16.1018
 616 5 5.08573 2.27078 15.5494
 617 6 6.1396 2.19452 17.4233
 618 5 5.52134 1.45164 17.4136
 619 4 6.99172 10.906 18.4164
 620 5 6.38619 10.5527 19.2567
 621 5 6.47227 11.4833 17.6497
 622 5 7.732 11.6446 18.8418
 623 6 7.56409 9.72795 17.8357
 624 5 7.16625 8.83855 18.1503
 625 4 15.7661 8.96378 2.62731
 626 5 14.9438 8.29236 2.73671
 627 5 15.69 9.68428 3.48255
 628 5 16.7105 8.33583 2.72662
 629 6 15.9065 9.72258 1.38271
 630 5 15.1231 9.58654 0.866924
 631 4 18.4658 8.22458 19.3043
 632 5 18.4324 9.11517 18.6606
 633 5 19.4755 8.03755 19.8422
 634 5 17.6947 8.27931 0.0342914
 635 6 18.2189 7.01686 18.6029
 636 5 17.8908 7.20248 17.6932
 637 4 10.7333 19.631 13.7664
 638 5 11.8081 19.5294 13.9805
 639 5 10.3113 18.5864 13.6317
 640 5 10.3621 19.9766 14.73
 641 6 10.3579 0.632239 12.8055
 642 5 10.9047 0.481798 11.9759
 643 4 1.03009 2.05069 3.69252
 644 5 1.29455 2.12003 4.73831
 645 5 1.67383 2.6543 3.07436
 646 5 1.13415 1.0793 3.32804
 647 6 19.6175 2.35677 3.48535
 648 5 19.2431 2.9073 4.21598
 649 4 1.90005 18.8018 1.26154
 650 5 1.53788 18.7537 0.208972
 651 5 2.63355 18.0415 1.39486
 652 5 2.44225 19.7396 1.4539
 653 6 0.859527 18.647 2.26062
 654 5 1.05046 18.9778 3.20853
 655 4 1.72152 13.5134 9.28382
 656 5 1.30561 12.8931 8.46479
 657 5 2.81113 13.5408 9.11368
 658 5 1.29575 14.5595 9.18665
 659 6 1.44499 12.9383 10.6368
 660 5 0.985737 12.0625 10.4717
 661 4 16.4229 18.6605 19.4598
 662 5 15.4868 18.3791 0.0211012
 663 5 16.6044 17.8819 18.7322
 664 5 16.2634 19.6386 18.9912
 665 6 17.6326 18.6569 0.203327
 666 5 17.6334 19.3211 0.955002
 667 4 1.27954 15.2419 6.27473
 668 5 1.8849 14.3275 6.54635
 669 5 0.414846 14.9394 5.6786
 670 5 0.894527 15.5838 7.27793
 671 6 2.20645 16.2047 5.69601
 672 5 2.89912 16.5709 6.34373
 673 4 15.3906 4.86929 16.9108
 674 5 15.672 4.02478 16.2913
 675 5 15.1372 4.71504 17.9646
 676 5 16.235 5.61173 16.8287
 677 6 14.2329 5.4208 16.133
 678 5 13.4317 5.51389 16.7102
 679 4 17.0671 8.65223 15.4196
 680 5 16.7734 8.62478 14.3517
 681 5 17.6869 9.53687 15.5719
 682 5 16.2536 8.7642 16.096
 683 6 17.754 7.43735 15.8095
 684 5 18.7226 7.6835 15.8065
 685 4 9.97527 4.43923 17.9185
 686 5 9.31694 3.68815 18.3212
 687 5 11.0215 4.14864 18.3085
 688 5 10.0804 4.35198 16.8402
 689 6 9.46635 5.75621 18.306
 690 5 10.2288 6.13005 18.8419
 691 4 2.4339 3.5087 16.4572
 692 5 1.9424 3.23698 17.3439
 693 5 2.93721 4.49454 16.6583
 694 5 3.18003 2.74773 16.3407
 695 6 1.58059 3.54434 15.3418
 696 5 0.703764 3.82548 15.6515
 697 4 5.79597 7.94346 12.758
 698 5 5.11038 8.06651 11.9087
 699 5 6.17119 6.91664 12.7867
 700 5 6.68833 8.6655 12.5439
 701 6 5.08507 8.37097 13.9223
 702 5 5.82636 8.77036 14.4846
 703 4 3.92977 19.6065 18.7346
 704 5 3.23983 0.428241 18.9485
 705 5 4.69176 19.4263 19.5524
 706 5 3.4119 18.6367 18.6205
 707 6 4.55568 19.863 17.3959
 708 5 5.38088 19.3412 17.4181
 709 4 12.8637 1.45973 18.2113
 710 5 13.1143 0.471212 17.7473
 711 5 12.0027 2.00751 17.6373
 712 5 12.5777 1.32987 19.2552
 713 6 14.1005 2.20809 18.1567
 714 5 13.8584 3.01676 18.7738
 715 4 6.1861 16.8017 18.4468
 716 5 5.16985 17.1182 18.8231
 717 5 6.84294 16.5527 19.3378
 718 5 6.15335 15.9156 17.7327
 719 6 6.89597 17.9204 17.7787
 720 5 6.97034 18.4848 18.6515
 721 4 1.7274 11.1335 17.3352
 722 5 1.65274 10.1671 17.9519
 723 5 1.00926 11.8238 17.8609
 724 5 2.7516 11.4158 17.3171
 725 6 1.24738 10.9808 15.9527
 726 5 1.98413 11.2097 15.3751
 727 4 15.1471 13.6119 1.31588
 728 5 15.8246 14.0238 2.09657
 729 5 15.5846 13.8009 0.364354
 730 5 15.1257 12.5211 1.52049
 731 6 13.8297 14.1698 1.3768
 732 5 13.6397 14.5409 2.2392
