
726 atoms
6 atom types
   0.0000000000   20.0000000000 xlo xhi
   0.0000000000   20.0000000000 ylo yhi
   0.0000000000   20.0000000000 zlo zhi
   0.0000000000    0.0000000000   0.0000000000 xy xz yz

Atoms # atomic

 1 1 12.776 9.12415 10.2171
 2 1 11.0812 11.7023 10.4657
 3 1 10.0696 9.32173 11.8943
 4 2 13.3181 11.5026 11.457
 5 2 8.00606 10.5477 12.1452
 6 2 10.899 12.7118 8.29284
 7 3 9.59485 12.6299 11.9346
 8 3 11.7719 10.2069 13.4163
 9 3 8.28188 12.4948 8.28278
 10 4 12.7771 10.9037 13.0575
 11 4 9.26244 13.1562 7.90008
 12 1 8.591 10.5183 9.60654
 13 1 10.1329 7.70759 9.10053
 14 1 11.1849 10.1807 7.74312
 15 2 7.96863 8.5651 8.23069
 16 2 13.25 8.70341 7.71837
 17 2 10.3134 6.8946 11.6943
 18 3 11.5874 6.50772 7.80542
 19 3 9.53893 9.67814 6.35954
 20 3 12.9063 7.41012 11.5754
 21 4 12.7218 6.99622 7.51919
 22 4 8.38858 9.21354 6.63062
 23 4 11.9307 6.68371 12.0356
 24 4 8.5584 12.1849 12.5297
 25 5 11.485 5.53431 7.62646
 26 5 13.5937 6.39593 7.22493
 27 5 7.52861 9.08195 5.91363
 28 5 9.63599 10.0399 5.44978
 29 5 7.38366 12.9418 8.10468
 30 5 9.22849 14.0928 7.25072
 31 5 9.98717 13.4906 12.448
 32 5 11.859 10.002 14.4203
 33 5 13.4671 11.3965 13.7861
 34 5 12.1803 5.82067 12.7306
 35 5 13.7611 7.03154 11.9503
 36 5 8.16761 12.7283 13.4505
 37 4 14.334 20.7426 -1.04257
 38 5 14.0787 21.2004 -1.95022
 39 5 14.4985 19.6231 -1.17395
 40 5 15.1756 21.2834 -0.527916
 41 6 13.1855 20.8648 -0.229769
 42 5 13.3377 20.6704 0.77235
 43 4 7.4601 12.0485 3.19074
 44 5 7.34761 12.4488 2.16986
 45 5 7.00269 12.6507 3.88319
 46 5 6.94444 11.0083 3.32335
 47 6 8.81639 11.8579 3.628
 48 5 9.15541 12.7795 3.47363
 49 4 5.76784 11.5473 0.072948
 50 5 6.00857 10.7797 0.756843
 51 5 5.02784 11.1805 -0.668936
 52 5 5.14838 12.3404 0.675878
 53 6 6.97057 12.1131 -0.47483
 54 5 6.8056 12.9997 -0.848101
 55 4 21.1498 10.0997 3.17156
 56 5 22.0039 9.41685 3.19376
 57 5 21.3246 10.9692 2.52725
 58 5 20.3203 9.49265 2.80438
 59 6 20.9315 10.4314 4.533
 60 5 20.1699 11.0784 4.5289
 61 4 16.7645 4.46982 4.54374
 62 5 17.8698 4.50631 4.58162
 63 5 16.436 4.18425 3.55566
 64 5 16.4185 3.74274 5.30081
 65 6 16.1894 5.74329 4.8354
 66 5 15.9709 6.21347 3.99733
 67 4 2.6272 5.23209 16.7258
 68 5 2.91814 6.28548 16.9874
 69 5 3.56977 4.71974 16.4297
 70 5 2.26481 4.67395 17.6407
 71 6 1.64026 5.08178 15.7018
 72 5 0.726677 5.33948 16.0102
 73 4 22.7697 16.2062 17.0744
 74 5 23.4927 15.4429 17.3469
 75 5 22.8983 17.0083 17.9264
 76 5 23.0022 16.605 16.0574
 77 6 21.4261 15.5114 17.123
 78 5 20.686 16.1904 17.0523
 79 4 4.81859 4.39872 6.46686
 80 5 4.96826 5.34046 7.04886
 81 5 4.84348 4.6818 5.41541
 82 5 5.7536 3.82126 6.63333
 83 6 3.5728 3.66769 6.87276
 84 5 2.97976 4.43457 7.03657
 85 4 14.5185 21.4091 11.1384
 86 5 14.8802 20.4068 11.468
 87 5 13.5611 21.7256 11.6337
 88 5 15.1698 22.277 11.1819
 89 6 14.2469 21.1338 9.71103
 90 5 14.1364 20.1259 9.60879
 91 4 17.6681 18.0972 5.15595
 92 5 17.4863 17.0029 5.24318
 93 5 17.6512 18.4202 4.11232
 94 5 16.888 18.5421 5.75952
 95 6 19.0475 18.2736 5.69909
 96 5 19.4996 18.9088 5.08379
 97 4 4.76413 1.95532 -0.315979
 98 5 5.84664 2.19724 -0.341698
 99 5 4.59043 1.22539 -1.16169
 100 5 4.57576 1.45353 0.653912
 101 6 4.04989 3.226 -0.328787
 102 5 4.58069 3.92581 -0.781785
 103 4 18.5016 3.7749 12.8188
 104 5 19.5742 4.00485 13.1124
 105 5 17.8738 4.11208 13.6736
 106 5 18.3602 4.38185 11.9312
 107 6 18.4267 2.45642 12.3239
 108 5 19.0874 1.87416 12.8141
 109 4 11.4569 18.9087 8.06975
 110 5 10.5206 18.9074 8.59623
 111 5 11.4039 18.9542 7.00416
 112 5 11.9549 19.7883 8.47869
 113 6 12.1904 17.8043 8.57838
 114 5 11.8328 16.9422 8.20087
 115 4 14.5421 4.31771 13.7052
 116 5 14.8751 4.98551 12.9022
 117 5 15.0147 3.30167 13.617
 118 5 14.8817 4.77734 14.6937
 119 6 13.1191 4.24594 13.6042
 120 5 12.7524 3.60483 14.2412
 121 4 10.3119 8.40558 17.7517
 122 5 11.148 8.63319 17.1165
 123 5 9.5541 9.24086 17.7131
 124 5 9.91407 7.42628 17.5708
 125 6 10.8651 8.22398 19.1277
 126 5 11.2306 9.11836 19.3632
 127 4 13.688 14.9525 7.39722
 128 5 13.9915 14.0925 6.73939
 129 5 13.9215 14.7489 8.42979
 130 5 14.3544 15.7796 7.04851
 131 6 12.3113 15.2319 7.11291
 132 5 11.8135 14.4821 7.54784
 133 4 16.4376 2.07962 15.9285
 134 5 16.0974 1.43894 15.0553
 135 5 16.654 3.13669 15.7658
 136 5 15.5549 2.0479 16.5232
 137 6 17.4762 1.42072 16.6942
 138 5 18.1428 1.00083 16.0862
 139 4 0.260717 3.84474 7.50792
 140 5 -0.562209 3.72372 8.23461
 141 5 0.776068 2.84753 7.37664
 142 5 -0.124987 4.10439 6.56409
 143 6 1.32513 4.82032 7.8333
 144 5 1.47072 4.68193 8.76644
 145 4 18.09 16.1116 16.3089
 146 5 17.3335 16.7052 15.8126
 147 5 17.6475 15.3949 17.0641
 148 5 18.7082 15.4617 15.5948
 149 6 18.9886 16.915 17.1642
 150 5 19.2428 17.7843 16.7683
 151 4 8.15603 1.25226 16.1672
 152 5 9.21491 1.41577 16.2469
 153 5 7.98913 0.665552 15.2279
 154 5 7.9918 0.532659 17.0124
 155 6 7.34159 2.46851 16.2293
 156 5 7.99103 3.22166 16.1342
 157 4 14.4684 12.8574 16.1737
 158 5 13.8618 13.6196 16.6924
 159 5 13.6337 12.1846 15.8102
 160 5 14.9956 13.3266 15.2773
 161 6 15.2712 12.1946 17.1394
 162 5 15.7228 11.4135 16.7546
 163 4 10.685 11.6451 16.2769
 164 5 10.3425 12.0624 15.2311
 165 5 10.7272 12.6136 16.8716
 166 5 9.98617 10.9613 16.7817
 167 6 11.9558 11.0035 16.0643
 168 5 12.256 10.9542 17.0038
 169 4 15.6454 20.9608 4.5159
 170 5 15.6182 21.7224 5.27229
 171 5 15.888 21.4371 3.58064
 172 5 16.3985 20.1866 4.62015
 173 6 14.3313 20.2185 4.65279
 174 5 13.7878 20.7375 5.27293
 175 4 8.14081 8.63943 1.545
 176 5 8.23368 9.48944 0.869029
 177 5 8.27696 9.03074 2.60611
 178 5 7.13219 8.3011 1.38472
 179 6 9.08164 7.6696 1.16008
 180 5 9.58055 7.93133 0.355153
 181 4 20.2043 11.3643 8.35149
 182 5 20.6184 12.3754 8.37129
 183 5 19.5869 11.278 7.38498
 184 5 21.0565 10.7356 8.15451
 185 6 19.6035 10.9626 9.60512
 186 5 19.1617 10.0743 9.41156
 187 4 13.7436 8.95781 2.10049
 188 5 14.4661 8.94324 1.27294
 189 5 13.2332 9.96401 2.1428
 190 5 12.9649 8.16132 1.93697
 191 6 14.4551 8.58634 3.28856
 192 5 15.2953 8.19171 3.02108
 193 4 1.20773 20.4847 9.79129
 194 5 0.247631 20.3671 9.33525
 195 5 1.88907 19.9659 9.14977
 196 5 1.48054 21.4672 10.046
 197 6 1.19286 19.6052 10.9641
 198 5 2.11964 19.1322 11.053
 199 4 22.2258 12.9816 19.3878
 200 5 21.8457 13.1279 20.4389
 201 5 22.9576 13.779 19.2112
 202 5 22.6691 11.9887 19.3967
 203 6 21.2736 12.9192 18.3476
 204 5 21.2096 13.7432 17.8561
 205 4 10.6776 21.9537 13.8117
 206 5 10.937 22.0726 12.7583
 207 5 9.78034 22.5152 14.1265
 208 5 10.5521 20.8459 13.8252
 209 6 11.76 22.3438 14.7542
 210 5 11.4282 22.8206 15.5331
 211 4 8.49868 3.00047 2.14835
 212 5 8.98969 3.11598 1.14323
 213 5 7.58356 3.71522 2.11529
 214 5 8.35662 1.9885 2.45763
 215 6 9.37833 3.43586 3.19973
 216 5 9.62502 4.43758 3.06497
 217 4 17.9969 13.6072 11.9115
 218 5 17.1051 13.083 11.6773
 219 5 18.2299 14.3544 11.0754
 220 5 17.9343 14.2153 12.8414
 221 6 19.082 12.6721 11.9945
 222 5 18.9968 12.0014 11.1937
 223 4 19.222 3.27727 -0.634251
 224 5 20.3078 3.11617 -0.89412
 225 5 18.9391 2.44254 0.050461
 226 5 19.1854 4.26467 -0.191468
 227 6 18.4214 3.45474 -1.83113
 228 5 18.0744 2.6032 -2.1061
 229 4 4.84434 1.80888 10.0055
 230 5 5.84898 2.30424 10.0544
 231 5 4.78411 0.8879 9.39545
 232 5 4.69863 1.48661 11.1068
 233 6 3.88698 2.79356 9.6411
 234 5 3.92147 2.99209 8.69627
 235 4 9.18976 5.25063 14.6863
 236 5 8.60103 4.58249 13.906
 237 5 10.2341 5.19734 14.4045
 238 5 8.73319 6.19036 14.5981
 239 6 8.92174 4.70787 15.9392
 240 5 9.72379 4.34043 16.4002
 241 4 6.97107 5.46717 19.0335
 242 5 7.12364 6.46102 19.3854
 243 5 7.73479 5.36371 18.2635
 244 5 7.29796 4.7018 19.7707
 245 6 5.69589 5.2014 18.6351
 246 5 5.41567 5.85028 17.945
 247 4 19.837 8.22927 13.9738
 248 5 19.6488 9.35403 13.9735
 249 5 20.3512 8.04037 13.0483
 250 5 20.5263 8.01518 14.7704
 251 6 18.6618 7.34266 14.2293
 252 5 18.8468 6.82127 15.0631
 253 4 13.675 -0.736182 15.0835
 254 5 13.7741 -0.151971 14.1461
 255 5 13.2686 -1.70748 14.9187
 256 5 14.6441 -0.922659 15.6431
 257 6 12.8818 0.012233 15.9514
 258 5 12.4313 0.762119 15.4462
 259 4 3.70614 17.2952 10.1101
 260 5 3.97791 17.7187 9.12752
 261 5 2.78462 16.6642 10.0239
 262 5 4.48045 16.6493 10.5005
 263 6 3.56056 18.4167 11.0023
 264 5 3.87361 18.1206 11.9018
 265 4 4.54003 15.8992 0.325182
 266 5 3.6037 15.3553 0.268544
 267 5 5.29756 15.2558 0.807703
 268 5 4.90809 16.0794 -0.682582
 269 6 4.32952 17.1291 1.06809
 270 5 3.71165 16.9838 1.82326
 271 4 1.83138 1.46426 13.5233
 272 5 1.65856 2.3745 14.1029
 273 5 2.48979 1.62349 12.7001
 274 5 2.27089 0.742115 14.2159
 275 6 0.558281 1.06326 12.9868
 276 5 0.839436 0.424349 12.1927
 277 4 8.34762 14.6094 18.3891
 278 5 8.82826 15.4484 17.8404
 279 5 8.90718 13.6837 17.9426
 280 5 8.76293 14.6995 19.4985
 281 6 6.92758 14.5235 18.3762
 282 5 6.65873 14.4183 17.4367
 283 4 19.777 13.6218 4.44798
 284 5 19.1941 14.3721 5.01186
 285 5 19.7276 13.9444 3.44342
 286 5 20.8188 13.5582 4.77669
 287 6 19.14 12.326 4.53212
 288 5 18.191 12.4039 4.76472
 289 4 2.88494 7.34761 0.283351
 290 5 3.5406 6.39623 0.194471
 291 5 3.22004 7.88513 1.20227
 292 5 3.04186 8.00233 -0.634271
 293 6 1.53263 6.90816 0.449281
 294 5 1.69374 6.08439 1.02261
 295 4 17.8621 7.34618 2.59343
 296 5 18.2099 6.29194 2.50449
 297 5 18.0024 7.75908 3.53843
 298 5 18.4977 7.98987 1.93389
 299 6 16.521 7.43565 2.14209
 300 5 16.3259 6.66202 1.57365
 301 4 4.88957 20.0972 16.1943
 302 5 4.5659 21.1821 16.2516
 303 5 5.61978 19.9585 15.4258
 304 5 5.32666 19.7859 17.1991
 305 6 3.69695 19.3184 16.0345
 306 5 3.83081 18.9305 15.1331
 307 4 9.68112 17.7942 15.6278
 308 5 9.20832 17.9272 16.6373
 309 5 8.83114 17.4526 15.0195
 310 5 10.065 18.7369 15.219
 311 6 10.7003 16.7448 15.5486
 312 5 10.9494 16.5226 16.4586
 313 4 9.5734 15.3648 1.88608
 314 5 9.45207 16.2447 2.47266
 315 5 8.56492 15.165 1.55889
 316 5 10.3704 15.3856 1.18176
 317 6 9.89099 14.2912 2.83059
 318 5 10.4318 14.7413 3.59418
 319 4 6.14181 16.2204 4.05805
 320 5 6.92866 16.9172 3.73579
 321 5 5.4211 16.2536 3.2398
 322 5 6.53538 15.2489 4.39895
 323 6 5.51793 16.8464 5.14918
 324 5 5.25667 16.1567 5.84502
 325 4 16.1629 8.46548 5.85633
 326 5 15.7306 9.39724 6.38316
 327 5 15.2718 7.92312 5.48511
 328 5 16.8152 8.79564 5.00576
 329 6 16.8832 7.67473 6.82168
 330 5 16.9538 6.71529 6.51693
 331 4 4.43651 11.4134 7.35395
 332 5 5.25047 10.6269 7.40955
 333 5 4.09714 11.6515 8.33946
 334 5 4.94681 12.2604 6.91528
 335 6 3.32656 10.9312 6.59796
 336 5 3.42148 9.9888 6.57383
 337 4 14.6611 12.2693 20.8642
 338 5 15.3895 11.6695 20.3396
 339 5 14.2906 11.789 21.7271
 340 5 15.275 13.1369 21.1905
 341 6 13.5183 12.5697 19.9584
 342 5 12.6485 12.6312 20.4786
 343 4 5.88872 19.8584 3.89384
 344 5 5.89816 20.9128 3.99079
 345 5 6.4736 19.5547 2.99671
 346 5 6.48809 19.4691 4.76496
 347 6 4.51061 19.3466 3.88131
 348 5 4.55759 18.4024 4.2448
 349 4 3.96248 12.9841 3.41667
 350 5 3.68495 14.0007 3.00233
 351 5 3.38914 12.2283 2.92401
 352 5 5.02154 12.6369 3.35643
 353 6 3.51464 12.9718 4.83922
 354 5 3.24287 12.0407 5.06779
 355 4 9.17201 4.32075 6.43455
 356 5 8.34969 4.42558 5.67241
 357 5 9.87357 5.14554 6.28923
 358 5 8.63382 4.28875 7.37047
 359 6 9.80213 3.04783 6.25302
 360 5 9.57976 2.80564 5.32716
 361 4 15.1308 18.5281 7.51831
 362 5 14.3787 18.6439 6.71533
 363 5 15.7148 17.6179 7.36571
 364 5 15.711 19.4412 7.63009
 365 6 14.5043 18.4214 8.85609
 366 5 13.5264 18.1881 8.6905
 367 4 1.37198 9.51004 17.483
 368 5 0.948273 9.30005 16.4357
 369 5 0.517311 9.61742 18.1564
 370 5 1.87569 8.64242 17.8363
 371 6 2.29682 10.5919 17.644
 372 5 1.75142 11.4929 17.6267
 373 4 5.56731 13.6182 11.2379
 374 5 4.6249 14.2003 11.4578
 375 5 5.87643 12.7832 11.9505
 376 5 5.40568 13.1206 10.2075
 377 6 6.59227 14.6232 11.3195
 378 5 7.42745 14.1189 11.2269
 379 4 4.67059 8.38386 17.0498
 380 5 3.65141 8.25312 16.6279
 381 5 5.0934 9.38927 16.7366
 382 5 4.56171 8.49128 18.1751
 383 6 5.46875 7.21337 16.809
 384 5 5.54379 7.01639 15.8234
 385 4 2.96912 0.814468 6.30876
 386 5 3.97098 0.961877 6.73193
 387 5 2.53488 -0.170272 6.57553
 388 5 2.37267 1.62448 6.85127
 389 6 2.88088 1.07337 4.90381
 390 5 3.49116 0.382582 4.46634
 391 4 11.5535 20.9614 2.75845
 392 5 11.3976 22.0185 3.064
 393 5 11.2252 20.2989 3.61813
 394 5 10.9337 20.676 1.90969
 395 6 12.9356 20.7279 2.39044
 396 5 13.3944 20.3607 3.20487
 397 4 0.835648 0.917116 17.4613
 398 5 1.77474 1.42464 17.3156
 399 5 0.31072 0.849726 18.4255
 400 5 0.070358 1.31036 16.7886
 401 6 1.10046 -0.510857 17.0845
 402 5 1.98988 -0.559094 16.6248
 403 4 8.13721 16.9976 8.9057
 404 5 7.4861 16.575 8.16775
 405 5 9.11854 16.5386 8.9089
 406 5 8.47082 18.0693 8.7498
 407 6 7.53126 16.9645 10.2105
 408 5 6.9414 16.1852 10.2768
 409 4 19.4741 7.40108 8.98855
 410 5 19.0955 6.81265 8.09827
 411 5 19.4688 6.83278 9.92781
 412 5 20.4622 7.6622 8.69735
 413 6 18.5984 8.55357 9.2192
 414 5 17.7295 8.37739 8.75601
 415 4 13.6763 9.42981 18.6032
 416 5 13.5135 8.55411 19.1851
 417 5 14.6687 9.83756 18.9007
 418 5 13.7971 9.21079 17.5101
 419 6 12.5536 10.3834 18.7477
 420 5 12.8527 11.1614 19.3603
 421 4 7.63399 0.789912 7.95681
 422 5 7.7369 1.51942 8.8227
 423 5 7.59437 -0.175783 8.40145
 424 5 6.72875 1.11735 7.41994
 425 6 8.81794 0.933556 7.06547
 426 5 8.97763 1.93181 7.04874
 427 4 0.248983 17.0794 13.0336
 428 5 -0.712958 16.8601 13.4648
 429 5 0.65956 16.1998 12.6668
 430 5 0.243977 17.8636 12.2972
 431 6 1.13259 17.5508 14.1252
 432 5 0.622531 18.094 14.8048
 433 4 0.869589 12.3969 15.186
 434 5 0.501624 13.4409 15.0918
 435 5 1.89316 12.3027 15.5893
 436 5 0.207501 11.9458 15.9309
 437 6 0.849322 11.7539 13.9077
 438 5 0.013001 12.0176 13.3832
 439 4 9.43018 18.112 5.53799
 440 5 10.1832 17.4021 5.86619
 441 5 8.91503 17.7611 4.65392
 442 5 8.62378 18.1123 6.35628
 443 6 10.1185 19.435 5.35788
 444 5 9.49434 20.0855 5.86509
 445 4 17.2375 -0.45005 0.885561
 446 5 16.7509 -1.02633 1.61054
 447 5 18.0572 -0.981431 0.436494
 448 5 16.4144 -0.236996 0.133282
 449 6 17.6933 0.701623 1.53793
 450 5 18.5164 0.602702 1.99744
 451 4 1.91328 19.3977 0.442999
 452 5 1.87669 20.4616 0.197874
 453 5 2.9484 19.0526 0.27187
 454 5 1.73626 19.3298 1.57028
 455 6 0.966535 18.5615 -0.268687
 456 5 1.12418 18.6923 -1.21537
 457 4 14.8758 15.6182 18.8152
 458 5 15.5819 14.9357 18.3392
 459 5 15.4117 15.7423 19.75
 460 5 14.7549 16.503 18.2065
 461 6 13.5808 15.0307 18.9991
 462 5 13.7082 14.1091 19.3633
 463 4 15.3268 15.8264 11.0128
 464 5 15.6422 15.3455 10.076
 465 5 14.2547 15.702 11.1583
 466 5 15.8078 15.4395 11.8984
 467 6 15.5996 17.2072 10.9207
 468 5 15.2759 17.5313 10.0625
 469 4 11.2824 6.73271 3.96309
 470 5 10.9374 6.87528 5.00438
 471 5 11.6063 7.59998 3.49779
 472 5 12.185 6.123 3.98355
 473 6 10.2729 6.00351 3.2686
 474 5 9.99082 6.57975 2.47775
 475 4 1.77772 3.62862 2.46228
 476 5 1.48287 4.31704 3.26159
 477 5 2.49392 2.91404 2.92245
 478 5 0.888342 3.0318 2.20064
 479 6 2.39182 4.45482 1.50359
 480 5 2.80379 3.97925 0.794245
 481 4 9.79773 0.96989 18.9084
 482 5 8.84671 1.48511 18.8156
 483 5 9.73204 0.322657 19.7591
 484 5 9.86477 0.285649 18.0768
 485 6 10.9233 1.94318 18.9455
 486 5 11.7282 1.47438 19.2178
 487 4 17.6021 -0.695842 13.4876
 488 5 16.7889 -1.1866 14.1849
 489 5 17.9697 -1.44177 12.7591
 490 5 17.213 0.162113 12.9156
 491 6 18.6647 -0.42194 14.4393
 492 5 19.4245 0.054601 13.9194
 493 4 18.7718 18.1743 9.42356
 494 5 19.7206 18.2249 9.85155
 495 5 18.2599 19.0582 9.87887
 496 5 18.7832 18.3724 8.29267
 497 6 17.9731 17.0224 9.66536
 498 5 17.2312 17.2127 10.3378
 499 4 7.68181 18.4043 1.00013
 500 5 8.57445 18.8229 0.439169
 501 5 7.61435 17.3034 0.858399
 502 5 7.82844 18.6048 2.0412
 503 6 6.52139 19.0081 0.327851
 504 5 5.77433 18.3364 0.552033
 505 4 5.80686 7.16116 4.27697
 506 5 6.17768 7.63148 3.28797
 507 5 5.40443 7.88433 4.95043
 508 5 5.12674 6.30531 4.16534
 509 6 7.04008 6.67087 4.91614
 510 5 7.62374 6.47513 4.16081
 511 4 7.57931 -0.043093 11.5989
 512 5 8.44428 -0.327114 10.9674
 513 5 6.59941 -0.281063 11.1297
 514 5 7.73386 -0.695389 12.4631
 515 6 7.69799 1.31152 11.9255
 516 5 7.04121 1.67768 12.63
 517 4 6.43521 6.03025 10.1416
 518 5 7.40169 6.05267 9.6622
 519 5 5.98627 7.02775 10.1141
 520 5 5.85414 5.29396 9.53875
 521 6 6.70432 5.63475 11.5235
 522 5 7.25727 4.83995 11.3194
 523 4 15.5659 5.62238 -1.10081
 524 5 16.3581 5.04394 -1.51278
 525 5 15.7089 6.72157 -1.22306
 526 5 14.6438 5.20946 -1.44768
 527 6 15.609 5.44919 0.37152
 528 5 14.8755 4.9276 0.704437
 529 4 12.0343 15.1914 13.1634
 530 5 12.4683 14.8907 14.0827
 531 5 12.2018 16.2092 12.8907
 532 5 12.3921 14.4832 12.4127
 533 6 10.6043 15.1324 13.2446
 534 5 10.4746 15.5392 14.1282
 535 4 12.9111 4.17482 9.80857
 536 5 12.5122 5.11686 9.47993
 537 5 13.9914 4.18419 10.1204
 538 5 12.2048 3.89804 10.6026
 539 6 12.79 3.19594 8.77272
 540 5 13.2381 2.40001 9.13113
 541 4 4.35794 16.2234 13.9875
 542 5 3.56897 15.4359 13.9869
 543 5 4.84613 16.4349 14.9917
 544 5 5.1799 15.7699 13.345
 545 6 3.80994 17.4916 13.4976
 546 5 2.80858 17.3415 13.6245
 547 4 3.23838 10.8139 11.9696
 548 5 2.66789 11.0727 11.1485
 549 5 2.87518 9.86182 12.3517
 550 5 4.3084 10.6493 11.7467
 551 6 3.14477 11.8006 12.9991
 552 5 2.15177 11.7923 13.3192
 553 4 15.9105 10.9088 8.98172
 554 5 16.7187 11.5755 9.3538
 555 5 16.5735 10.1891 8.52841
 556 5 15.2561 10.621 9.80158
 557 6 15.1294 11.5535 7.98527
 558 5 14.7898 10.9268 7.39767
 559 4 2.11058 16.7955 4.11117
 560 5 2.90345 16.9048 4.86429
 561 5 1.34158 16.0448 4.47709
 562 5 1.63671 17.798 3.9839
 563 6 2.59197 16.2959 2.83749
 564 5 1.77107 16.2713 2.21102
 565 4 10.326 11.7174 0.737391
 566 5 10.3113 11.7478 -0.396681
 567 5 9.29761 12.1072 0.89283
 568 5 10.4689 10.7655 1.2167
 569 6 11.2715 12.7765 1.16769
 570 5 10.8622 13.23 1.93823
 571 4 5.12963 2.9864 13.903
 572 5 4.37951 2.47523 14.5848
 573 5 4.72108 3.00908 12.9056
 574 5 5.32945 3.94074 14.2515
 575 6 6.35562 2.24447 13.7686
 576 5 6.90798 2.49376 14.5256
 577 4 17.3905 1.67841 8.18797
 578 5 17.927 2.18683 7.47522
 579 5 17.72 0.622547 8.11664
 580 5 17.601 2.04212 9.16614
 581 6 15.997 1.89736 7.82143
 582 5 15.5259 1.51615 8.61308
 583 4 1.0447 6.79285 4.66403
 584 5 1.31762 5.91754 5.24681
 585 5 1.67722 6.85221 3.71017
 586 5 0.011848 6.81074 4.4389
 587 6 1.29908 7.97239 5.49098
 588 5 0.951232 8.84895 5.13785
 589 4 4.12265 14.6301 7.70149
 590 5 4.85278 14.7067 8.46652
 591 5 3.53394 13.7574 7.97577
 592 5 3.53196 15.5702 7.75055
 593 6 4.77964 14.5695 6.48487
 594 5 4.20386 13.9429 5.93632
 595 4 16.346 13.9672 3.84866
 596 5 15.4987 13.7408 3.21459
 597 5 17.2563 14.1488 3.20656
 598 5 16.0727 14.8866 4.40557
 599 6 16.5791 12.9557 4.83802
 600 5 15.9843 12.151 4.76602
 601 4 12.895 3.51562 5.25036
 602 5 13.6996 3.32746 4.54065
 603 5 13.1841 4.44207 5.83801
 604 5 11.8768 3.70868 4.85145
 605 6 12.8553 2.32325 6.08521
 606 5 12.6286 2.6089 6.99777
 607 4 -0.429101 15.724 0.531346
 608 5 -0.759361 16.39 -0.234395
 609 5 -1.12668 15.7883 1.39306
 610 5 -0.288164 14.6904 0.090401
 611 6 0.952187 16.142 0.874742
 612 5 1.05465 16.9386 0.276269
 613 4 11.8497 4.3211 1.00075
 614 5 11.8171 5.20997 0.340503
 615 5 11.629 4.64266 2.03743
 616 5 11.2135 3.5566 0.665335
 617 6 13.2614 3.89875 0.906892
 618 5 13.2293 2.96899 0.575712
 619 4 18.2751 11.6822 20.9812
 620 5 17.6079 11.6445 20.1043
 621 5 19.0605 10.9193 21.0193
 622 5 18.7697 12.6157 21.0423
 623 6 17.3317 11.5861 22.0407
 624 5 17.7685 11.8245 22.875
 625 4 19.3287 6.68231 18.0927
 626 5 19.9989 6.10223 18.8084
 627 5 18.4796 6.91387 18.6089
 628 5 19.9177 7.52282 17.7893
 629 6 19.0374 5.92315 16.8923
 630 5 18.6652 5.05968 17.1682
 631 4 7.59308 15.0691 14.8754
 632 5 7.39604 16.1544 15.0307
 633 5 7.34345 14.8233 13.8151
 634 5 8.72802 14.8761 14.9897
 635 6 6.83069 14.2426 15.7953
 636 5 6.20855 13.694 15.2628
 637 4 16.305 8.92636 12.5834
 638 5 15.2693 9.38145 12.5528
 639 5 16.8134 9.38059 11.6683
 640 5 16.7926 9.31237 13.4753
 641 6 16.2911 7.51554 12.5369
 642 5 17.1535 7.0829 12.8515
 643 4 12.3267 4.61162 17.2762
 644 5 12.5733 4.52386 18.3439
 645 5 12.0915 5.67218 17.0503
 646 5 13.3207 4.27088 16.8353
 647 6 11.2013 3.63558 17.0079
 648 5 11.1078 3.05789 17.809
 649 4 4.75481 11.6907 15.6028
 650 5 4.0466 11.9169 16.3841
 651 5 5.68011 11.4747 16.0405
 652 5 4.37195 10.8105 15.0126
 653 6 4.90982 12.8023 14.7142
 654 5 4.16958 12.5568 14.0004
 655 4 13.2726 11.3801 5.00318
 656 5 12.9021 10.404 5.31613
 657 5 12.5029 11.9837 4.4472
 658 5 13.6177 12.0204 5.89849
 659 6 14.4339 11.2139 4.21136
 660 5 14.6096 10.2901 4.08823
 661 4 11.4688 17.8458 18.716
 662 5 11.9966 18.3419 17.9164
 663 5 12.0304 17.9808 19.6679
 664 5 10.4724 18.2224 18.8318
 665 6 11.247 16.4327 18.3318
 666 5 12.1291 15.9235 18.4687
 667 4 3.05521 8.10495 8.41436
 668 5 2.77756 7.0726 8.60024
 669 5 2.06685 8.59656 8.64698
 670 5 3.79261 8.50647 9.14194
 671 6 3.50496 8.25132 7.08521
 672 5 2.6985 8.17829 6.50795
 673 4 -0.506028 1.59533 4.6527
 674 5 -0.557864 1.41174 5.81727
 675 5 -1.49758 1.58331 4.17164
 676 5 0.027187 2.49018 4.53263
 677 6 0.296523 0.560276 4.07461
 678 5 1.22823 0.726969 4.36621
 679 4 17.1349 13.8117 7.8336
 680 5 16.393 13.2973 7.2665
 681 5 17.1926 13.4089 8.86562
 682 5 18.0547 13.608 7.38685
 683 6 16.866 15.2512 7.79583
 684 5 17.4603 15.7588 8.39764
 685 4 20.4616 15.6427 7.72196
 686 5 19.4359 15.4141 7.44663
 687 5 20.3999 15.74 8.83865
 688 5 21.1224 14.7341 7.44112
 689 6 20.9329 16.8555 7.05311
 690 5 20.1895 17.1749 6.37981
 691 4 9.2749 3.44336 10.3787
 692 5 9.71326 2.51212 10.063
 693 5 9.57428 3.60593 11.4221
 694 5 9.68112 4.27029 9.76861
 695 6 7.85724 3.46156 10.3038
 696 5 7.57838 2.75596 10.975
 697 4 16.5295 4.88086 9.23394
 698 5 17.6206 4.94962 9.19266
 699 5 16.3496 4.16022 10.0472
 700 5 16.1527 5.83505 9.69114
 701 6 16.0118 4.56764 7.98641
 702 5 15.9112 3.62944 7.85422
 703 4 12.4336 16.2228 4.04768
 704 5 12.5963 16.0346 2.9749
 705 5 13.3625 16.167 4.66033
 706 5 11.8976 17.1677 4.15983
 707 6 11.5725 15.205 4.56928
 708 5 11.6963 15.0886 5.58529
 709 4 4.7714 7.83998 13.3835
 710 5 4.85712 8.80128 13.9093
 711 5 3.77291 7.42366 13.5294
 712 5 4.95911 7.98114 12.3331
 713 6 5.79073 7.01023 13.9518
 714 5 6.28187 6.61617 13.1603
 715 4 11.8478 18.472 11.7579
 716 5 12.5459 17.9846 12.4721
 717 5 11.1414 19.1254 12.2913
 718 5 12.408 19.0492 11.0775
 719 6 11.2623 17.3731 10.9971
 720 5 10.8924 16.808 11.6936
 721 4 2.4322 5.4085 11.2172
 722 5 3.34063 5.76235 10.7112
 723 5 2.72808 5.10199 12.1908
 724 5 1.57921 6.12031 11.3127
 725 6 1.86028 4.27051 10.4575
 726 5 2.56906 3.61732 10.3095
